<?xml version="1.0" encoding="UTF-8"?>

<!-- generated on 2019年07月10日 星期三 09时52分50秒 by Eclipse SUMO GUI Version 1.2.0
<configuration xmlns:xsi="http://www.w3.org/2001/XMLSchema-instance" xsi:noNamespaceSchemaLocation="http://sumo.dlr.de/xsd/sumoConfiguration.xsd">

    <input>
        <net-file value="data/motorway.net.xml"/>
        <route-files value="data/highway.rou.xml"/>
    </input>

    <output>
        <tripinfo-output value="tripinfo.xml"/>
    </output>

    <time>
        <begin value="0"/>
        <step-length value="0.01"/>
    </time>

    <processing>
        <lateral-resolution value="1"/>
    </processing>

    <traci_server>
        <remote-port value="40861"/>
    </traci_server>

    <gui_only>
        <gui-settings-file value="data/highway.view.xml"/>
        <tracker-interval value="0.01"/>
    </gui_only>

</configuration>
-->

<tripinfos xmlns:xsi="http://www.w3.org/2001/XMLSchema-instance" xsi:noNamespaceSchemaLocation="http://sumo.dlr.de/xsd/tripinfo_file.xsd">
    <tripinfo id="pkw12_f.0" depart="2.69" departLane="gneE0_1" departPos="5.10" departPosLat="0.00" departSpeed="18.00" departDelay="0.00" arrival="74.11" arrivalLane="gneE8_3" arrivalPos="200.01" arrivalPosLat="0.00" arrivalSpeed="33.67" duration="71.42" routeLength="1565.65" waitingTime="0.00" waitingCount="0" stopTime="0.00" timeLoss="23.56" rerouteNo="1" devices="tripinfo_pkw12_f.0 routing_pkw12_f.0" vType="pkw_f" speedFactor="1.01" vaporized=""/>
    <tripinfo id="pkw12_m.0" depart="0.59" departLane="gneE0_1" departPos="5.10" departPosLat="0.00" departSpeed="20.90" departDelay="0.00" arrival="78.34" arrivalLane="gneE8_2" arrivalPos="200.01" arrivalPosLat="-0.69" arrivalSpeed="25.00" duration="77.75" routeLength="1565.65" waitingTime="0.00" waitingCount="0" stopTime="0.00" timeLoss="14.23" rerouteNo="1" devices="tripinfo_pkw12_m.0 routing_pkw12_m.0" vType="pkw_m" speedFactor="0.94" vaporized=""/>
    <tripinfo id="pkw13_m.0" depart="8.47" departLane="gneE0_1" departPos="5.10" departPosLat="0.00" departSpeed="12.29" departDelay="0.00" arrival="91.03" arrivalLane="gneE7_2" arrivalPos="198.38" arrivalPosLat="0.00" arrivalSpeed="25.00" duration="82.56" routeLength="1564.02" waitingTime="0.00" waitingCount="0" stopTime="0.00" timeLoss="18.84" rerouteNo="1" devices="tripinfo_pkw13_m.0 routing_pkw13_m.0" vType="pkw_m" speedFactor="1.03" vaporized=""/>
    <tripinfo id="pkw22_m.0" depart="26.47" departLane="Zadao1_0" departPos="5.10" departPosLat="0.00" departSpeed="18.63" departDelay="0.00" arrival="92.30" arrivalLane="gneE8_2" arrivalPos="200.01" arrivalPosLat="0.00" arrivalSpeed="25.00" duration="65.83" routeLength="1449.51" waitingTime="0.00" waitingCount="0" stopTime="0.00" timeLoss="7.64" rerouteNo="1" devices="tripinfo_pkw22_m.0 routing_pkw22_m.0" vType="pkw_m" speedFactor="1.09" vaporized=""/>
    <tripinfo id="pkw13_m.1" depart="12.89" departLane="gneE0_1" departPos="5.10" departPosLat="0.00" departSpeed="12.26" departDelay="0.00" arrival="95.29" arrivalLane="gneE7_2" arrivalPos="198.38" arrivalPosLat="-0.69" arrivalSpeed="25.00" duration="82.40" routeLength="1564.02" waitingTime="0.00" waitingCount="0" stopTime="0.00" timeLoss="17.74" rerouteNo="1" devices="tripinfo_pkw13_m.1 routing_pkw13_m.1" vType="pkw_m" speedFactor="0.83" vaporized=""/>
    <tripinfo id="pkw23_m.0" depart="32.17" departLane="Zadao1_0" departPos="5.10" departPosLat="0.00" departSpeed="16.83" departDelay="0.00" arrival="95.66" arrivalLane="gneE7_1" arrivalPos="198.38" arrivalPosLat="0.00" arrivalSpeed="25.00" duration="63.49" routeLength="1447.88" waitingTime="0.00" waitingCount="0" stopTime="0.00" timeLoss="4.30" rerouteNo="1" devices="tripinfo_pkw23_m.0 routing_pkw23_m.0" vType="pkw_m" speedFactor="1.05" vaporized=""/>
    <tripinfo id="pkw13_f.1" depart="19.80" departLane="gneE0_1" departPos="5.10" departPosLat="0.00" departSpeed="16.46" departDelay="0.00" arrival="96.80" arrivalLane="gneE7_2" arrivalPos="198.38" arrivalPosLat="1.59" arrivalSpeed="29.53" duration="77.00" routeLength="1564.02" waitingTime="0.00" waitingCount="0" stopTime="0.00" timeLoss="21.64" rerouteNo="1" devices="tripinfo_pkw13_f.1 routing_pkw13_f.1" vType="pkw_f" speedFactor="0.89" vaporized=""/>
    <tripinfo id="pkw13_m.2" depart="15.17" departLane="gneE0_3" departPos="5.10" departPosLat="0.00" departSpeed="1.09" departDelay="0.00" arrival="105.60" arrivalLane="gneE7_1" arrivalPos="198.38" arrivalPosLat="1.59" arrivalSpeed="25.00" duration="90.43" routeLength="1564.02" waitingTime="0.00" waitingCount="0" stopTime="0.00" timeLoss="27.87" rerouteNo="1" devices="tripinfo_pkw13_m.2 routing_pkw13_m.2" vType="pkw_m" speedFactor="1.05" vaporized=""/>
    <tripinfo id="pkw13_f.0" depart="5.81" departLane="gneE0_3" departPos="5.10" departPosLat="0.00" departSpeed="1.59" departDelay="0.00" arrival="106.84" arrivalLane="gneE7_1" arrivalPos="198.38" arrivalPosLat="1.27" arrivalSpeed="25.52" duration="101.03" routeLength="1564.02" waitingTime="0.00" waitingCount="0" stopTime="0.00" timeLoss="48.25" rerouteNo="1" devices="tripinfo_pkw13_f.0 routing_pkw13_f.0" vType="pkw_f" speedFactor="1.08" vaporized=""/>
    <tripinfo id="pkw13_m.3" depart="24.10" departLane="gneE0_3" departPos="5.10" departPosLat="0.00" departSpeed="12.81" departDelay="0.00" arrival="109.95" arrivalLane="gneE7_2" arrivalPos="198.38" arrivalPosLat="-0.70" arrivalSpeed="25.00" duration="85.85" routeLength="1564.02" waitingTime="0.00" waitingCount="0" stopTime="0.00" timeLoss="22.25" rerouteNo="1" devices="tripinfo_pkw13_m.3 routing_pkw13_m.3" vType="pkw_m" speedFactor="0.86" vaporized=""/>
    <tripinfo id="pkw12_m.1" depart="21.48" departLane="gneE0_1" departPos="5.10" departPosLat="0.00" departSpeed="5.80" departDelay="0.00" arrival="111.41" arrivalLane="gneE8_2" arrivalPos="200.01" arrivalPosLat="-0.69" arrivalSpeed="25.00" duration="89.93" routeLength="1565.65" waitingTime="0.00" waitingCount="0" stopTime="0.00" timeLoss="24.38" rerouteNo="1" devices="tripinfo_pkw12_m.1 routing_pkw12_m.1" vType="pkw_m" speedFactor="0.94" vaporized=""/>
    <tripinfo id="pkw13_f.2" depart="34.24" departLane="gneE0_1" departPos="5.10" departPosLat="0.00" departSpeed="4.77" departDelay="0.00" arrival="115.90" arrivalLane="gneE7_2" arrivalPos="198.38" arrivalPosLat="1.59" arrivalSpeed="35.00" duration="81.66" routeLength="1564.02" waitingTime="0.00" waitingCount="0" stopTime="0.00" timeLoss="35.60" rerouteNo="1" devices="tripinfo_pkw13_f.2 routing_pkw13_f.2" vType="pkw_f" speedFactor="1.12" vaporized=""/>
    <tripinfo id="pkw13_m.4" depart="38.63" departLane="gneE0_3" departPos="5.10" departPosLat="0.00" departSpeed="17.49" departDelay="0.00" arrival="117.78" arrivalLane="gneE7_2" arrivalPos="198.38" arrivalPosLat="-0.70" arrivalSpeed="25.00" duration="79.15" routeLength="1564.02" waitingTime="0.00" waitingCount="0" stopTime="0.00" timeLoss="15.18" rerouteNo="1" devices="tripinfo_pkw13_m.4 routing_pkw13_m.4" vType="pkw_m" speedFactor="0.88" vaporized=""/>
    <tripinfo id="pkw12_f.1" depart="35.80" departLane="gneE0_1" departPos="5.10" departPosLat="0.00" departSpeed="2.19" departDelay="0.94" arrival="119.84" arrivalLane="gneE8_3" arrivalPos="200.01" arrivalPosLat="0.00" arrivalSpeed="33.03" duration="84.04" routeLength="1565.65" waitingTime="0.00" waitingCount="0" stopTime="0.00" timeLoss="35.56" rerouteNo="1" devices="tripinfo_pkw12_f.1 routing_pkw12_f.1" vType="pkw_f" speedFactor="0.99" vaporized=""/>
    <tripinfo id="pkw12_m.2" depart="28.04" departLane="gneE0_1" departPos="5.10" departPosLat="0.00" departSpeed="0.15" departDelay="0.00" arrival="123.22" arrivalLane="gneE8_2" arrivalPos="200.01" arrivalPosLat="0.00" arrivalSpeed="25.00" duration="95.18" routeLength="1565.65" waitingTime="0.00" waitingCount="0" stopTime="0.00" timeLoss="31.35" rerouteNo="1" devices="tripinfo_pkw12_m.2 routing_pkw12_m.2" vType="pkw_m" speedFactor="1.03" vaporized=""/>
    <tripinfo id="pkw11_m.0" depart="43.95" departLane="gneE0_3" departPos="5.10" departPosLat="0.00" departSpeed="5.65" departDelay="0.00" arrival="126.45" arrivalLane="Zadao2_0" arrivalPos="113.64" arrivalPosLat="0.00" arrivalSpeed="14.41" duration="82.50" routeLength="1220.81" waitingTime="0.00" waitingCount="0" stopTime="0.00" timeLoss="28.37" rerouteNo="1" devices="tripinfo_pkw11_m.0 routing_pkw11_m.0" vType="pkw_m" speedFactor="0.94" vaporized=""/>
    <tripinfo id="pkw12_m.3" depart="39.48" departLane="gneE0_1" departPos="5.10" departPosLat="0.00" departSpeed="2.35" departDelay="0.86" arrival="129.24" arrivalLane="gneE8_2" arrivalPos="200.01" arrivalPosLat="0.19" arrivalSpeed="25.00" duration="89.76" routeLength="1565.65" waitingTime="0.00" waitingCount="0" stopTime="0.00" timeLoss="26.19" rerouteNo="1" devices="tripinfo_pkw12_m.3 routing_pkw12_m.3" vType="pkw_m" speedFactor="0.93" vaporized=""/>
    <tripinfo id="pkw13_m.6" depart="55.97" departLane="gneE0_3" departPos="5.10" departPosLat="0.00" departSpeed="22.31" departDelay="0.00" arrival="132.77" arrivalLane="gneE7_2" arrivalPos="198.38" arrivalPosLat="0.00" arrivalSpeed="25.00" duration="76.80" routeLength="1564.02" waitingTime="0.00" waitingCount="0" stopTime="0.00" timeLoss="14.08" rerouteNo="1" devices="tripinfo_pkw13_m.6 routing_pkw13_m.6" vType="pkw_m" speedFactor="0.98" vaporized=""/>
    <tripinfo id="pkw13_m.5" depart="41.92" departLane="gneE0_1" departPos="5.10" departPosLat="0.00" departSpeed="1.40" departDelay="0.74" arrival="140.45" arrivalLane="gneE7_2" arrivalPos="198.38" arrivalPosLat="0.16" arrivalSpeed="25.00" duration="98.53" routeLength="1564.02" waitingTime="0.00" waitingCount="0" stopTime="0.00" timeLoss="34.37" rerouteNo="1" devices="tripinfo_pkw13_m.5 routing_pkw13_m.5" vType="pkw_m" speedFactor="0.94" vaporized=""/>
    <tripinfo id="pkw22_m.1" depart="65.50" departLane="Zadao1_0" departPos="5.10" departPosLat="0.00" departSpeed="2.58" departDelay="0.00" arrival="141.89" arrivalLane="gneE8_2" arrivalPos="200.01" arrivalPosLat="0.53" arrivalSpeed="25.00" duration="76.39" routeLength="1449.51" waitingTime="0.00" waitingCount="0" stopTime="0.00" timeLoss="16.77" rerouteNo="1" devices="tripinfo_pkw22_m.1 routing_pkw22_m.1" vType="pkw_m" speedFactor="0.92" vaporized=""/>
    <tripinfo id="pkw12_f.2" depart="53.41" departLane="gneE0_1" departPos="5.10" departPosLat="0.00" departSpeed="4.97" departDelay="0.00" arrival="147.65" arrivalLane="gneE8_2" arrivalPos="200.01" arrivalPosLat="-0.70" arrivalSpeed="33.93" duration="94.24" routeLength="1565.65" waitingTime="3.45" waitingCount="1" stopTime="0.00" timeLoss="47.01" rerouteNo="1" devices="tripinfo_pkw12_f.2 routing_pkw12_f.2" vType="pkw_f" speedFactor="1.02" vaporized=""/>
    <tripinfo id="pkw12_m.5" depart="54.81" departLane="gneE0_1" departPos="5.10" departPosLat="0.00" departSpeed="2.89" departDelay="1.33" arrival="154.76" arrivalLane="gneE8_3" arrivalPos="200.01" arrivalPosLat="0.00" arrivalSpeed="25.00" duration="99.95" routeLength="1565.65" waitingTime="0.00" waitingCount="0" stopTime="0.00" timeLoss="37.33" rerouteNo="1" devices="tripinfo_pkw12_m.5 routing_pkw12_m.5" vType="pkw_m" speedFactor="1.01" vaporized=""/>
    <tripinfo id="pkw12_m.4" depart="50.56" departLane="gneE0_1" departPos="5.10" departPosLat="0.00" departSpeed="5.69" departDelay="0.00" arrival="155.44" arrivalLane="gneE8_1" arrivalPos="200.01" arrivalPosLat="0.00" arrivalSpeed="25.00" duration="104.88" routeLength="1565.65" waitingTime="7.83" waitingCount="1" stopTime="0.00" timeLoss="41.45" rerouteNo="1" devices="tripinfo_pkw12_m.4 routing_pkw12_m.4" vType="pkw_m" speedFactor="1.16" vaporized=""/>
    <tripinfo id="pkw12_f.3" depart="56.93" departLane="gneE0_1" departPos="5.10" departPosLat="0.00" departSpeed="1.66" departDelay="0.08" arrival="156.07" arrivalLane="gneE8_3" arrivalPos="200.01" arrivalPosLat="0.00" arrivalSpeed="25.94" duration="99.14" routeLength="1565.65" waitingTime="0.00" waitingCount="0" stopTime="0.00" timeLoss="45.13" rerouteNo="1" devices="tripinfo_pkw12_f.3 routing_pkw12_f.3" vType="pkw_f" speedFactor="0.89" vaporized=""/>
    <tripinfo id="pkw11_f.0" depart="73.54" departLane="gneE0_2" departPos="5.10" departPosLat="0.00" departSpeed="15.69" departDelay="0.04" arrival="157.82" arrivalLane="Zadao2_0" arrivalPos="113.64" arrivalPosLat="-0.00" arrivalSpeed="14.34" duration="84.28" routeLength="1220.81" waitingTime="0.00" waitingCount="0" stopTime="0.00" timeLoss="43.34" rerouteNo="1" devices="tripinfo_pkw11_f.0 routing_pkw11_f.0" vType="pkw_f" speedFactor="1.17" vaporized=""/>
    <tripinfo id="pkw12_m.6" depart="61.68" departLane="gneE0_1" departPos="5.10" departPosLat="0.00" departSpeed="5.66" departDelay="0.00" arrival="157.87" arrivalLane="gneE8_2" arrivalPos="200.01" arrivalPosLat="0.65" arrivalSpeed="25.00" duration="96.19" routeLength="1565.65" waitingTime="0.00" waitingCount="0" stopTime="0.00" timeLoss="31.36" rerouteNo="1" devices="tripinfo_pkw12_m.6 routing_pkw12_m.6" vType="pkw_m" speedFactor="0.83" vaporized=""/>
    <tripinfo id="pkw13_f.4" depart="67.08" departLane="gneE0_1" departPos="5.10" departPosLat="0.00" departSpeed="11.86" departDelay="0.83" arrival="158.30" arrivalLane="gneE7_2" arrivalPos="198.38" arrivalPosLat="-0.00" arrivalSpeed="29.81" duration="91.22" routeLength="1564.02" waitingTime="0.00" waitingCount="0" stopTime="0.00" timeLoss="44.50" rerouteNo="1" devices="tripinfo_pkw13_f.4 routing_pkw13_f.4" vType="pkw_f" speedFactor="1.13" vaporized=""/>
    <tripinfo id="pkw13_f.3" depart="63.23" departLane="gneE0_1" departPos="5.10" departPosLat="0.00" departSpeed="3.66" departDelay="0.00" arrival="159.47" arrivalLane="gneE7_2" arrivalPos="198.38" arrivalPosLat="1.59" arrivalSpeed="29.08" duration="96.24" routeLength="1564.02" waitingTime="0.00" waitingCount="0" stopTime="0.00" timeLoss="40.30" rerouteNo="1" devices="tripinfo_pkw13_f.3 routing_pkw13_f.3" vType="pkw_f" speedFactor="0.87" vaporized=""/>
    <tripinfo id="pkw13_m.7" depart="67.97" departLane="gneE0_1" departPos="5.10" departPosLat="0.00" departSpeed="9.86" departDelay="0.00" arrival="160.34" arrivalLane="gneE7_2" arrivalPos="198.38" arrivalPosLat="-0.70" arrivalSpeed="25.00" duration="92.37" routeLength="1564.02" waitingTime="0.00" waitingCount="0" stopTime="0.00" timeLoss="29.07" rerouteNo="1" devices="tripinfo_pkw13_m.7 routing_pkw13_m.7" vType="pkw_m" speedFactor="0.93" vaporized=""/>
    <tripinfo id="pkw22_f.0" depart="88.53" departLane="Zadao1_0" departPos="5.10" departPosLat="0.00" departSpeed="0.78" departDelay="0.00" arrival="161.37" arrivalLane="gneE8_3" arrivalPos="200.01" arrivalPosLat="0.30" arrivalSpeed="31.90" duration="72.84" routeLength="1449.51" waitingTime="0.00" waitingCount="0" stopTime="0.00" timeLoss="24.73" rerouteNo="1" devices="tripinfo_pkw22_f.0 routing_pkw22_f.0" vType="pkw_f" speedFactor="0.96" vaporized=""/>
    <tripinfo id="pkw13_f.5" depart="68.72" departLane="gneE0_1" departPos="5.10" departPosLat="0.00" departSpeed="6.84" departDelay="0.58" arrival="161.61" arrivalLane="gneE7_2" arrivalPos="198.38" arrivalPosLat="0.00" arrivalSpeed="25.72" duration="92.89" routeLength="1564.02" waitingTime="0.00" waitingCount="0" stopTime="0.00" timeLoss="46.96" rerouteNo="1" devices="tripinfo_pkw13_f.5 routing_pkw13_f.5" vType="pkw_f" speedFactor="1.18" vaporized=""/>
    <tripinfo id="bus13.0" depart="65.88" departLane="gneE0_3" departPos="7.10" departPosLat="0.00" departSpeed="1.68" departDelay="0.00" arrival="168.06" arrivalLane="gneE7_1" arrivalPos="198.38" arrivalPosLat="1.58" arrivalSpeed="20.00" duration="102.18" routeLength="1562.02" waitingTime="0.00" waitingCount="0" stopTime="0.00" timeLoss="24.08" rerouteNo="1" devices="tripinfo_bus13.0 routing_bus13.0" vType="bus" speedFactor="0.95" vaporized=""/>
    <tripinfo id="pkw13_m.8" depart="71.27" departLane="gneE0_3" departPos="5.10" departPosLat="0.00" departSpeed="7.23" departDelay="0.00" arrival="173.97" arrivalLane="gneE7_2" arrivalPos="198.38" arrivalPosLat="-0.00" arrivalSpeed="25.00" duration="102.70" routeLength="1564.02" waitingTime="0.00" waitingCount="0" stopTime="0.00" timeLoss="39.39" rerouteNo="1" devices="tripinfo_pkw13_m.8 routing_pkw13_m.8" vType="pkw_m" speedFactor="1.15" vaporized=""/>
    <tripinfo id="pkw23_m.1" depart="101.86" departLane="Zadao1_1" departPos="5.10" departPosLat="0.00" departSpeed="18.88" departDelay="0.00" arrival="175.27" arrivalLane="gneE7_2" arrivalPos="198.38" arrivalPosLat="0.00" arrivalSpeed="25.00" duration="73.41" routeLength="1447.88" waitingTime="0.00" waitingCount="0" stopTime="0.00" timeLoss="14.51" rerouteNo="1" devices="tripinfo_pkw23_m.1 routing_pkw23_m.1" vType="pkw_m" speedFactor="1.09" vaporized=""/>
    <tripinfo id="pkw13_m.9" depart="78.86" departLane="gneE0_3" departPos="5.10" departPosLat="0.00" departSpeed="18.88" departDelay="0.00" arrival="178.85" arrivalLane="gneE7_1" arrivalPos="198.38" arrivalPosLat="1.60" arrivalSpeed="25.00" duration="99.99" routeLength="1564.02" waitingTime="6.82" waitingCount="1" stopTime="0.00" timeLoss="37.42" rerouteNo="1" devices="tripinfo_pkw13_m.9 routing_pkw13_m.9" vType="pkw_m" speedFactor="1.02" vaporized=""/>
    <tripinfo id="pkw12_m.7" depart="71.81" departLane="gneE0_1" departPos="5.10" departPosLat="0.00" departSpeed="0.77" departDelay="0.00" arrival="180.21" arrivalLane="gneE8_3" arrivalPos="200.01" arrivalPosLat="-1.17" arrivalSpeed="25.00" duration="108.40" routeLength="1565.65" waitingTime="2.38" waitingCount="1" stopTime="0.00" timeLoss="45.77" rerouteNo="1" devices="tripinfo_pkw12_m.7 routing_pkw12_m.7" vType="pkw_m" speedFactor="1.01" vaporized=""/>
    <tripinfo id="pkw13_f.6" depart="82.88" departLane="gneE0_3" departPos="5.10" departPosLat="0.00" departSpeed="4.42" departDelay="0.00" arrival="181.17" arrivalLane="gneE7_2" arrivalPos="198.38" arrivalPosLat="1.59" arrivalSpeed="30.02" duration="98.29" routeLength="1564.02" waitingTime="0.00" waitingCount="0" stopTime="0.00" timeLoss="44.24" rerouteNo="1" devices="tripinfo_pkw13_f.6 routing_pkw13_f.6" vType="pkw_f" speedFactor="0.90" vaporized=""/>
    <tripinfo id="pkw12_f.4" depart="76.99" departLane="gneE0_1" departPos="5.10" departPosLat="0.00" departSpeed="4.27" departDelay="0.00" arrival="181.69" arrivalLane="gneE8_2" arrivalPos="200.01" arrivalPosLat="-0.70" arrivalSpeed="22.46" duration="104.70" routeLength="1565.65" waitingTime="4.56" waitingCount="1" stopTime="0.00" timeLoss="54.82" rerouteNo="1" devices="tripinfo_pkw12_f.4 routing_pkw12_f.4" vType="pkw_f" speedFactor="0.99" vaporized=""/>
    <tripinfo id="pkw13_m.11" depart="81.38" departLane="gneE0_2" departPos="5.10" departPosLat="0.00" departSpeed="9.20" departDelay="0.00" arrival="182.03" arrivalLane="gneE7_1" arrivalPos="198.38" arrivalPosLat="-0.00" arrivalSpeed="25.00" duration="100.65" routeLength="1564.02" waitingTime="0.00" waitingCount="0" stopTime="0.00" timeLoss="37.38" rerouteNo="1" devices="tripinfo_pkw13_m.11 routing_pkw13_m.11" vType="pkw_m" speedFactor="1.18" vaporized=""/>
    <tripinfo id="pkw12_f.6" depart="96.53" departLane="gneE0_1" departPos="5.10" departPosLat="0.00" departSpeed="3.37" departDelay="0.00" arrival="183.44" arrivalLane="gneE8_3" arrivalPos="200.01" arrivalPosLat="0.00" arrivalSpeed="34.59" duration="86.91" routeLength="1565.65" waitingTime="0.00" waitingCount="0" stopTime="0.00" timeLoss="40.60" rerouteNo="1" devices="tripinfo_pkw12_f.6 routing_pkw12_f.6" vType="pkw_f" speedFactor="1.04" vaporized=""/>
    <tripinfo id="pkw13_m.12" depart="86.70" departLane="gneE0_3" departPos="5.10" departPosLat="0.00" departSpeed="9.27" departDelay="0.00" arrival="183.86" arrivalLane="gneE7_2" arrivalPos="198.38" arrivalPosLat="-0.00" arrivalSpeed="25.00" duration="97.16" routeLength="1564.02" waitingTime="0.00" waitingCount="0" stopTime="0.00" timeLoss="34.59" rerouteNo="1" devices="tripinfo_pkw13_m.12 routing_pkw13_m.12" vType="pkw_m" speedFactor="1.03" vaporized=""/>
    <tripinfo id="pkw22_f.1" depart="124.16" departLane="Zadao1_0" departPos="5.10" departPosLat="0.00" departSpeed="9.14" departDelay="0.00" arrival="184.71" arrivalLane="gneE8_3" arrivalPos="200.01" arrivalPosLat="0.28" arrivalSpeed="33.89" duration="60.55" routeLength="1449.51" waitingTime="0.00" waitingCount="0" stopTime="0.00" timeLoss="15.16" rerouteNo="1" devices="tripinfo_pkw22_f.1 routing_pkw22_f.1" vType="pkw_f" speedFactor="1.02" vaporized=""/>
    <tripinfo id="pkw13_f.7" depart="89.20" departLane="gneE0_2" departPos="5.10" departPosLat="0.00" departSpeed="0.82" departDelay="0.00" arrival="185.13" arrivalLane="gneE7_2" arrivalPos="198.38" arrivalPosLat="0.00" arrivalSpeed="25.76" duration="95.93" routeLength="1564.02" waitingTime="0.00" waitingCount="0" stopTime="0.00" timeLoss="49.86" rerouteNo="1" devices="tripinfo_pkw13_f.7 routing_pkw13_f.7" vType="pkw_f" speedFactor="1.09" vaporized=""/>
    <tripinfo id="pkw_my" depart="100.00" departLane="gneE0_3" departPos="5.10" departPosLat="0.00" departSpeed="15.57" departDelay="0.00" arrival="186.38" arrivalLane="gneE7_2" arrivalPos="198.38" arrivalPosLat="1.59" arrivalSpeed="26.40" duration="86.38" routeLength="1564.02" waitingTime="0.00" waitingCount="0" stopTime="0.00" timeLoss="33.56" rerouteNo="1" devices="tripinfo_pkw_my routing_pkw_my" vType="pkw_special" speedFactor="1.06" vaporized=""/>
    <tripinfo id="pkw21_f.0" depart="136.83" departLane="Zadao1_0" departPos="5.10" departPosLat="0.00" departSpeed="21.92" departDelay="0.00" arrival="188.40" arrivalLane="Zadao2_0" arrivalPos="113.64" arrivalPosLat="0.00" arrivalSpeed="14.34" duration="51.57" routeLength="1104.67" waitingTime="0.00" waitingCount="0" stopTime="0.00" timeLoss="8.96" rerouteNo="1" devices="tripinfo_pkw21_f.0 routing_pkw21_f.0" vType="pkw_f" speedFactor="1.02" vaporized=""/>
    <tripinfo id="pkw13_m.10" depart="80.57" departLane="gneE0_3" departPos="5.10" departPosLat="0.00" departSpeed="3.99" departDelay="0.00" arrival="188.48" arrivalLane="gneE7_1" arrivalPos="198.38" arrivalPosLat="-0.00" arrivalSpeed="24.20" duration="107.91" routeLength="1564.02" waitingTime="0.00" waitingCount="0" stopTime="0.00" timeLoss="42.91" rerouteNo="1" devices="tripinfo_pkw13_m.10 routing_pkw13_m.10" vType="pkw_m" speedFactor="0.97" vaporized=""/>
    <tripinfo id="pkw12_f.7" depart="105.84" departLane="gneE0_1" departPos="5.10" departPosLat="0.00" departSpeed="16.82" departDelay="0.00" arrival="195.56" arrivalLane="gneE8_3" arrivalPos="200.01" arrivalPosLat="0.00" arrivalSpeed="20.23" duration="89.72" routeLength="1565.65" waitingTime="0.00" waitingCount="0" stopTime="0.00" timeLoss="33.66" rerouteNo="1" devices="tripinfo_pkw12_f.7 routing_pkw12_f.7" vType="pkw_f" speedFactor="0.90" vaporized=""/>
</tripinfos>
